
  ___ ___ ___ _ _ _  
 |   |   |_  | | | | 
 | | | | | . | | | | 
 |__ |  _|___|_____|  21.6.1b1
 |___|_|             

User:   madkru@c130.nifl.fysik.dtu.dk
Date:   Wed Jul  6 15:01:24 2022
Arch:   x86_64
Pid:    254457
Python: 3.8.6
gpaw:   /home/niflheim/madkru/new_venv/gpaw/gpaw (1f0dfc9eae)
_gpaw:  /home/niflheim/madkru/new_venv/gpaw/build/lib.linux-x86_64-skylake-3.8/
        _gpaw.cpython-38-x86_64-linux-gnu.so (c1e45bfab3)
ase:    /home/niflheim/madkru/new_venv/ase/ase (version 3.23.0b1-ca38c75a67)
numpy:  /home/modules/software/SciPy-bundle/2020.11-foss-2020b/lib/python3.8/site-packages/numpy (version 1.19.4)
scipy:  /home/modules/software/SciPy-bundle/2020.11-foss-2020b/lib/python3.8/site-packages/scipy (version 1.5.4)
libxc:  4.3.4
units:  Angstrom and eV
cores: 40
OpenMP: False
OMP_NUM_THREADS: 1

Input parameters:
  convergence: {density: 1e-09}
  experimental: {magmoms: [[0. 0. 0.]
 [0. 0. 0.]
 [0. 0. 0.]
 ...
 [0. 0. 5.]
 [0. 0. 0.]
 [0. 0. 0.]],
                 soc: True}
  kpts: [4 4 6]
  maxiter: 5000
  mixer: {backend: pulay,
          beta: 0.02,
          method: difference,
          nmaxold: 5,
          weight: 100}
  mode: {ecut: 600.0,
         gammacentered: False,
         name: pw}
  occupations: {name: fermi-dirac,
                width: 0.001}
  symmetry: off

System changes: positions, numbers, cell, pbc, initial_charges, initial_magmoms 

Initialize ...

O-setup:
  name: Oxygen
  id: 9b9d51c344dea68c822856295a461509
  Z: 8.0
  valence: 6
  core: 2
  charge: 0.0
  file: /home/modules/software/GPAW-setups/0.9.20000/O.LDA.gz
  compensation charges: gauss, rc=0.21, lmax=2
  cutoffs: 1.17(filt), 0.83(core),
  valence states:
                energy  radius
    2s(2.00)   -23.752   0.688
    2p(4.00)    -9.195   0.598
    *s           3.459   0.688
    *p          18.016   0.598
    *d           0.000   0.619

  Using partial waves for O as LCAO basis

Cr-setup:
  name: Chromium
  id: 444e8044bc0f91048286c984738d87f5
  Z: 24.0
  valence: 6
  core: 18
  charge: 0.0
  file: /home/modules/software/GPAW-setups/0.9.20000/Cr.LDA.gz
  compensation charges: gauss, rc=0.35, lmax=2
  cutoffs: 2.14(filt), 3.04(core),
  valence states:
                energy  radius
    4s(1.00)    -4.191   1.164
    4p(0.00)    -1.079   1.217
    3d(5.00)    -3.128   1.111
    *s          23.021   1.164
    *p          26.132   1.217
    *d          24.083   1.111

  Using partial waves for Cr as LCAO basis

Reference energy: -126274.181857

Non-collinear calculation.
Magnetic moment: (0.000000, 0.000000, 0.000000)

Convergence criteria:
  Maximum total energy change: 0.0005 eV / electron
  Maximum integral of absolute density change: 1e-09 electrons
  Maximum integral of absolute eigenstate change: 4e-08 eV^2
  Maximum number of iterations: 5000

Symmetries present (total): 1

  ( 1  0  0)
  ( 0  1  0)
  ( 0  0  1)

96 k-points: 4 x 4 x 6 Monkhorst-Pack grid
96 k-points in the irreducible part of the Brillouin zone
       k-points in crystal coordinates                weights
   0:    -0.37500000   -0.37500000   -0.41666667          1/96
   1:    -0.37500000   -0.37500000   -0.25000000          1/96
   2:    -0.37500000   -0.37500000   -0.08333333          1/96
   3:    -0.37500000   -0.37500000    0.08333333          1/96
   4:    -0.37500000   -0.37500000    0.25000000          1/96
   5:    -0.37500000   -0.37500000    0.41666667          1/96
   6:    -0.37500000   -0.12500000   -0.41666667          1/96
   7:    -0.37500000   -0.12500000   -0.25000000          1/96
   8:    -0.37500000   -0.12500000   -0.08333333          1/96
   9:    -0.37500000   -0.12500000    0.08333333          1/96
          ...
  95:     0.37500000    0.37500000    0.41666667          1/96

Wave functions: Plane wave expansion
  Cutoff energy: 600.000 eV
  Number of coefficients (min, max): 2899, 2926
  Pulay-stress correction: 0.000000 eV/Ang^3 (de/decut=0.000000)
  Using FFTW library
  ScaLapack parameters: grid=1x1, blocksize=None
  Wavefunction extrapolation:
    Improved wavefunction reuse through dual PAW basis 

Occupation numbers: Fermi-Dirac: width=0.0010 eV
 

Eigensolver
   Davidson(niter=2) 

Densities:
  Coarse grid: 32*32*32 grid
  Fine grid: 64*64*64 grid
  Total Charge: 0.000000 

Density mixing:
  Method: difference
  Backend: pulay
  Linear mixing parameter: 0.02
  Mixing with 5 old densities
  Damping of long wave oscillations: 100 

Hamiltonian:
  XC and Coulomb potentials evaluated on a 64*64*64 grid
  Using the LDA Exchange-Correlation functional
  External potential:
    <gpaw.external.NoExternalPotential object at 0x2b05f6b1ba30>
 

Memory estimate:
  Process memory now: 433.92 MiB
  Calculator: 34.72 MiB
    Density: 15.86 MiB
      Arrays: 6.50 MiB
      Localized functions: 3.86 MiB
      Mixer: 5.50 MiB
    Hamiltonian: 4.34 MiB
      Arrays: 4.25 MiB
      XC: 0.00 MiB
      Poisson: 0.00 MiB
      vbar: 0.09 MiB
    Wavefunctions: 14.51 MiB
      Arrays psit_nG: 7.14 MiB
      Eigensolver: 4.77 MiB
      Projections: 0.37 MiB
      Projectors: 0.89 MiB
      PW-descriptor: 1.34 MiB

Total number of cores used: 40
Parallelization over k-points: 40

Number of atoms: 10
Number of atomic orbitals: 60
Number of bands in calculation: 80
Number of valence electrons: 60
Bands to converge: occupied

... initialized

Initializing position-dependent things.

Density initialized from atomic densities
Creating initial wave functions:
  60 bands from LCAO basis set
  20 bands from random numbers

                          
                          
                          
                          
            Cr            
                          
                          
            Cr            
           O              
         O      O         
                          
        O      O          
             O            
            Cr            
                          
                          
            Cr            
                          
                          
                          
                          

Positions:
   0 O     -0.760257   -1.389649    8.036284    ( 0.0000,  0.0000,  0.0000)
   1 O     -1.582570   -0.037204    5.739814    ( 0.0000,  0.0000,  0.0000)
   2 O     -0.823832    1.351941    8.035763    ( 0.0000,  0.0000,  0.0000)
   3 O      0.823832   -1.352571    5.739518    ( 0.0000,  0.0000,  0.0000)
   4 Cr    -0.000003   -0.000113    2.198232    ( 0.0000,  0.0000,  5.0000)
   5 Cr    -0.000004   -0.000258    4.695519    ( 0.0000,  0.0000, -5.0000)
   6 Cr     0.000009   -0.000631   11.584683    ( 0.0000,  0.0000, -5.0000)
   7 Cr     0.000003   -0.000485    9.087395    ( 0.0000,  0.0000,  5.0000)
   8 O      1.582655    0.036408    8.035455    ( 0.0000,  0.0000,  0.0000)
   9 O      0.760167    1.388846    5.738998    ( 0.0000,  0.0000,  0.0000)

Unit cell:
           periodic     x           y           z      points  spacing
  1. axis:    yes    2.342815    1.352071    4.592704    32     0.1216
  2. axis:    yes   -2.342815    1.352071    4.592704    32     0.1216
  3. axis:    yes    0.000000   -2.704886    4.592923    32     0.1216

  Lengths:   5.330085   5.330085   5.330230
  Angles:   52.139511  52.139510  52.149782

Effective grid spacing dv^(1/3) = 0.1386

                     log10-error:    total        iterations:
           time      wfs    density  energy       poisson
iter:   1  15:02:06                 -99.631325            +0.0,+0.0,-0.0
iter:   2  15:02:11  -0.65  -0.99  -100.951883            -0.0,-0.0,+0.0
iter:   3  15:02:16  -0.08  -1.00   -97.147954            -0.0,-0.0,+0.0
iter:   4  15:02:21  -0.60  -1.35   -97.337446            -0.0,+0.0,+0.0
iter:   5  15:02:26  -1.12  -1.37   -97.423488            -0.0,+0.0,+0.0
iter:   6  15:02:31  -0.38  -1.38   -98.574390            -0.0,+0.0,+0.0
iter:   7  15:02:36  -1.08  -1.54   -97.143827            -0.0,+0.0,+0.0
iter:   8  15:02:41  -2.27  -1.84   -97.265843            -0.0,+0.0,+0.0
iter:   9  15:02:46  -1.38  -1.79   -97.147345            -0.0,-0.0,+0.0
iter:  10  15:02:51  -0.60  -1.83   -97.354919            -0.0,-0.0,+0.0
iter:  11  15:02:56  -1.57  -1.72   -96.852650            -0.0,-0.0,+0.0
iter:  12  15:03:01  -2.69  -2.33   -96.854924            -0.0,-0.0,+0.0
iter:  13  15:03:06  -2.06  -2.41   -96.857444            -0.0,+0.0,+0.0
iter:  14  15:03:11  -2.76  -2.53   -96.858161            -0.0,+0.0,+0.0
iter:  15  15:03:16  -3.19  -2.53   -96.859569            -0.0,+0.0,+0.0
iter:  16  15:03:21  -2.70  -2.45   -96.875761            -0.0,+0.0,+0.0
iter:  17  15:03:26  -3.13  -2.27   -96.873873            -0.0,-0.0,+0.0
iter:  18  15:03:31  -3.31  -2.38   -96.877325            -0.0,+0.0,+0.0
iter:  19  15:03:36  -2.79  -2.28   -96.877925            -0.0,+0.0,+0.0
iter:  20  15:03:41  -2.79  -2.37   -96.858070            -0.0,+0.0,+0.0
iter:  21  15:03:46  -3.18  -2.56   -96.869298            -0.0,+0.0,+0.0
iter:  22  15:03:51  -3.13  -2.46   -96.863452            -0.0,+0.0,+0.0
iter:  23  15:03:56  -2.44  -2.50   -96.853044            -0.0,+0.0,+0.0
iter:  24  15:04:01  -3.29  -2.82   -96.851994            -0.0,+0.0,+0.0
iter:  25  15:04:06  -3.93  -2.97   -96.851552            -0.0,+0.0,+0.0
iter:  26  15:04:11  -4.46  -3.15   -96.851524            -0.0,+0.0,+0.0
iter:  27  15:04:16  -4.06  -3.19   -96.851702            -0.0,+0.0,+0.0
iter:  28  15:04:21  -4.35  -3.16   -96.851474            -0.0,+0.0,+0.0
iter:  29  15:04:26  -4.78  -3.24   -96.851524            -0.0,+0.0,+0.0
iter:  30  15:04:31  -4.81  -3.26   -96.851597            -0.0,+0.0,+0.0
iter:  31  15:04:36  -4.11  -3.20   -96.851506            -0.0,+0.0,+0.0
iter:  32  15:04:41  -4.46  -3.24   -96.851539            -0.0,+0.0,+0.0
iter:  33  15:04:46  -4.89  -3.37   -96.851562            -0.0,+0.0,+0.0
iter:  34  15:04:51  -5.20  -3.40   -96.851538            -0.0,+0.0,+0.0
iter:  35  15:04:56  -5.00  -3.61   -96.851517            -0.0,+0.0,+0.0
iter:  36  15:05:01  -5.28  -3.79   -96.851495            -0.0,+0.0,+0.0
iter:  37  15:05:06  -5.72  -3.78   -96.851496            -0.0,+0.0,+0.0
iter:  38  15:05:11  -5.59  -3.77   -96.851506            -0.0,+0.0,+0.0
iter:  39  15:05:16  -5.77  -3.80   -96.851508            -0.0,+0.0,+0.0
iter:  40  15:05:21  -5.93  -3.79   -96.851512            -0.0,+0.0,+0.0
iter:  41  15:05:26  -5.63  -3.77   -96.851515            -0.0,+0.0,+0.0
iter:  42  15:05:31  -5.66  -3.86   -96.851512            -0.0,+0.0,+0.0
iter:  43  15:05:36  -6.32  -3.95   -96.851513            -0.0,+0.0,+0.0
iter:  44  15:05:41  -5.42  -3.94   -96.851538            -0.0,+0.0,+0.0
iter:  45  15:05:46  -5.98  -3.78   -96.851539            -0.0,+0.0,+0.0
iter:  46  15:05:51  -6.19  -3.78   -96.851524            -0.0,+0.0,+0.0
iter:  47  15:05:56  -6.68  -3.84   -96.851526            -0.0,+0.0,+0.0
iter:  48  15:06:01  -5.87  -3.84   -96.851503            -0.0,+0.0,+0.0
iter:  49  15:06:06  -5.87  -3.97   -96.851498            -0.0,+0.0,+0.0
iter:  50  15:06:11  -6.41  -4.05   -96.851497            -0.0,+0.0,+0.0
iter:  51  15:06:17  -6.48  -4.08   -96.851499            -0.0,+0.0,+0.0
iter:  52  15:06:22  -6.14  -4.11   -96.851493            -0.0,+0.0,+0.0
iter:  53  15:06:27  -6.42  -4.29   -96.851493            -0.0,+0.0,+0.0
iter:  54  15:06:32  -6.09  -4.32   -96.851499            -0.0,+0.0,+0.0
iter:  55  15:06:37  -6.62  -4.20   -96.851495            -0.0,+0.0,+0.0
iter:  56  15:06:42  -6.36  -4.41   -96.851493            -0.0,+0.0,+0.0
iter:  57  15:06:47  -6.83  -4.52   -96.851494            -0.0,+0.0,+0.0
iter:  58  15:06:52  -7.14  -4.55   -96.851493            -0.0,+0.0,+0.0
iter:  59  15:06:57  -7.56  -4.76   -96.851493            -0.0,+0.0,+0.0
iter:  60  15:07:02  -7.73  -4.77   -96.851493            -0.0,+0.0,+0.0
iter:  61  15:07:07  -7.27  -4.81   -96.851493            -0.0,+0.0,+0.0
iter:  62  15:07:12  -7.67  -5.00   -96.851493            -0.0,+0.0,+0.0
iter:  63  15:07:17  -8.06  -5.34   -96.851493            -0.0,+0.0,+0.0
iter:  64  15:07:22  -8.14  -5.36   -96.851493            -0.0,+0.0,+0.0
iter:  65  15:07:27  -8.25  -5.43   -96.851493            -0.0,+0.0,+0.0
iter:  66  15:07:32  -8.38  -5.44   -96.851493            -0.0,+0.0,+0.0
iter:  67  15:07:37  -8.48  -5.43   -96.851493            -0.0,+0.0,+0.0
iter:  68  15:07:42  -8.47  -5.45   -96.851493            -0.0,+0.0,+0.0
iter:  69  15:07:47  -8.66  -5.52   -96.851493            -0.0,+0.0,+0.0
iter:  70  15:07:52  -8.63  -5.56   -96.851493            -0.0,+0.0,+0.0
iter:  71  15:07:57  -8.70  -5.75   -96.851493            -0.0,+0.0,+0.0
iter:  72  15:08:02  -8.91  -5.81   -96.851493            -0.0,+0.0,+0.0
iter:  73  15:08:07  -9.00  -5.91   -96.851493            -0.0,+0.0,+0.0
iter:  74  15:08:12  -9.14  -6.02   -96.851493            -0.0,+0.0,+0.0
iter:  75  15:08:17  -9.22  -5.99   -96.851493            -0.0,+0.0,+0.0
iter:  76  15:08:22  -9.26  -5.99   -96.851493            -0.0,+0.0,+0.0
iter:  77  15:08:27  -9.46  -6.01   -96.851493            -0.0,+0.0,+0.0
iter:  78  15:08:32  -9.49  -6.04   -96.851493            -0.0,+0.0,+0.0
iter:  79  15:08:37  -9.52  -6.15   -96.851493            -0.0,+0.0,+0.0
iter:  80  15:08:42  -9.50  -6.15   -96.851493            -0.0,+0.0,+0.0
iter:  81  15:08:47  -9.70  -6.12   -96.851493            -0.0,+0.0,+0.0
iter:  82  15:08:52  -9.69  -6.15   -96.851493            -0.0,+0.0,+0.0
iter:  83  15:08:57  -9.72  -6.14   -96.851493            -0.0,+0.0,+0.0
iter:  84  15:09:02  -9.92  -6.16   -96.851493            -0.0,+0.0,+0.0
iter:  85  15:09:07 -10.01  -6.17   -96.851493            -0.0,+0.0,+0.0
iter:  86  15:09:12 -10.03  -6.17   -96.851493            -0.0,+0.0,+0.0
iter:  87  15:09:17 -10.08  -6.18   -96.851493            -0.0,+0.0,+0.0
iter:  88  15:09:22  -9.95  -6.19   -96.851493            -0.0,+0.0,+0.0
iter:  89  15:09:27 -10.30  -6.47   -96.851493            -0.0,+0.0,+0.0
iter:  90  15:09:32 -10.37  -6.49   -96.851493            -0.0,+0.0,+0.0
iter:  91  15:09:37 -10.47  -6.59   -96.851493            -0.0,+0.0,+0.0
iter:  92  15:09:42 -10.46  -6.59   -96.851493            -0.0,+0.0,+0.0
iter:  93  15:09:47 -10.56  -6.47   -96.851493            -0.0,+0.0,+0.0
iter:  94  15:09:52 -10.71  -6.69   -96.851493            -0.0,+0.0,+0.0
iter:  95  15:09:57 -10.80  -6.73   -96.851493            -0.0,+0.0,+0.0
iter:  96  15:10:02 -10.84  -6.78   -96.851493            -0.0,+0.0,+0.0
iter:  97  15:10:07 -10.84  -6.96   -96.851493            -0.0,+0.0,+0.0
iter:  98  15:10:12 -10.99  -6.74   -96.851493            -0.0,+0.0,+0.0
iter:  99  15:10:17 -11.02  -6.95   -96.851493            -0.0,+0.0,+0.0
iter: 100  15:10:22 -11.04  -7.01   -96.851493            -0.0,+0.0,+0.0
iter: 101  15:10:27 -11.04  -6.91   -96.851493            -0.0,+0.0,+0.0
iter: 102  15:10:32 -11.05  -6.99   -96.851493            -0.0,+0.0,+0.0
iter: 103  15:10:37 -11.27  -7.20   -96.851493            -0.0,+0.0,+0.0
iter: 104  15:10:42 -11.32  -7.26   -96.851493            -0.0,+0.0,+0.0
iter: 105  15:10:47 -11.42  -7.28   -96.851493            -0.0,+0.0,+0.0
iter: 106  15:10:52 -11.47  -7.30   -96.851493            -0.0,+0.0,+0.0
iter: 107  15:10:57 -11.57  -7.43   -96.851493            -0.0,+0.0,+0.0
iter: 108  15:11:02 -11.68  -7.43   -96.851493            -0.0,+0.0,+0.0
iter: 109  15:11:07 -11.85  -7.68   -96.851493            -0.0,+0.0,+0.0
iter: 110  15:11:12 -11.82  -7.73   -96.851493            -0.0,+0.0,+0.0
iter: 111  15:11:17 -11.85  -7.77   -96.851493            -0.0,+0.0,+0.0
iter: 112  15:11:22 -11.91  -7.79   -96.851493            -0.0,+0.0,+0.0
iter: 113  15:11:27 -11.99  -7.80   -96.851493            -0.0,+0.0,+0.0
iter: 114  15:11:32 -12.10  -7.81   -96.851493            -0.0,+0.0,+0.0
iter: 115  15:11:37 -12.14  -7.85   -96.851493            -0.0,+0.0,+0.0
iter: 116  15:11:42 -12.16  -7.97   -96.851493            -0.0,+0.0,+0.0
iter: 117  15:11:47 -11.43  -7.93   -96.851493            -0.0,+0.0,+0.0
iter: 118  15:11:52 -11.72  -8.07   -96.851493            -0.0,+0.0,+0.0
iter: 119  15:11:57 -12.15  -8.03   -96.851493            -0.0,+0.0,+0.0
iter: 120  15:12:02 -12.18  -8.12   -96.851493            -0.0,+0.0,+0.0
iter: 121  15:12:08 -12.39  -8.18   -96.851493            -0.0,+0.0,+0.0
iter: 122  15:12:12 -12.42  -8.27   -96.851493            -0.0,+0.0,+0.0
iter: 123  15:12:18 -11.33  -8.23   -96.851493            -0.0,+0.0,+0.0
iter: 124  15:12:23 -11.74  -8.22   -96.851493            -0.0,+0.0,+0.0
iter: 125  15:12:28 -12.36  -8.23   -96.851493            -0.0,+0.0,+0.0
iter: 126  15:12:33 -11.93  -8.19   -96.851493            -0.0,+0.0,+0.0
iter: 127  15:12:38 -11.27  -8.17   -96.851493            -0.0,+0.0,+0.0
iter: 128  15:12:43 -11.58  -8.15   -96.851493            -0.0,+0.0,+0.0
iter: 129  15:12:48 -12.30  -8.19   -96.851493            -0.0,+0.0,+0.0
iter: 130  15:12:53 -11.77  -8.24   -96.851493            -0.0,+0.0,+0.0
iter: 131  15:12:58 -11.35  -8.20   -96.851493            -0.0,+0.0,+0.0
iter: 132  15:13:03 -11.45  -8.20   -96.851493            -0.0,+0.0,+0.0
iter: 133  15:13:08 -11.31  -8.19   -96.851493            -0.0,+0.0,+0.0
iter: 134  15:13:13 -11.18  -8.18   -96.851493            -0.0,+0.0,+0.0
iter: 135  15:13:18 -11.74  -8.18   -96.851493            -0.0,+0.0,+0.0
iter: 136  15:13:23 -12.30  -8.15   -96.851493            -0.0,+0.0,+0.0
iter: 137  15:13:28 -12.23  -8.22   -96.851493            -0.0,+0.0,+0.0
iter: 138  15:13:33 -10.99  -8.19   -96.851493            -0.0,+0.0,+0.0
iter: 139  15:13:38 -11.99  -8.17   -96.851493            -0.0,+0.0,+0.0
iter: 140  15:13:43 -11.93  -8.18   -96.851493            -0.0,+0.0,+0.0
iter: 141  15:13:48 -11.14  -8.17   -96.851493            -0.0,+0.0,+0.0
iter: 142  15:13:53 -11.94  -8.16   -96.851493            -0.0,+0.0,+0.0
iter: 143  15:13:58 -12.02  -8.20   -96.851493            -0.0,+0.0,+0.0
iter: 144  15:14:03 -12.57  -8.36   -96.851493            -0.0,+0.0,+0.0
iter: 145  15:14:08 -11.69  -8.38   -96.851493            -0.0,+0.0,+0.0
iter: 146  15:14:13 -11.69  -8.38   -96.851493            -0.0,+0.0,+0.0
iter: 147  15:14:18 -11.17  -8.33   -96.851493            -0.0,+0.0,+0.0
iter: 148  15:14:23 -12.08  -8.41   -96.851493            -0.0,+0.0,+0.0
iter: 149  15:14:28 -12.02  -8.43   -96.851493            -0.0,+0.0,+0.0
iter: 150  15:14:33 -11.46  -8.45   -96.851493            -0.0,+0.0,+0.0
iter: 151  15:14:38 -11.97  -8.42   -96.851493            -0.0,+0.0,+0.0
iter: 152  15:14:43 -12.39  -8.40   -96.851493            -0.0,+0.0,+0.0
iter: 153  15:14:48 -12.66  -8.45   -96.851493            -0.0,+0.0,+0.0
iter: 154  15:14:53 -12.98  -8.44   -96.851493            -0.0,+0.0,+0.0
iter: 155  15:14:58 -12.87  -8.47   -96.851493            -0.0,+0.0,+0.0
iter: 156  15:15:03 -12.56  -8.49   -96.851493            -0.0,+0.0,+0.0
iter: 157  15:15:08 -12.83  -8.80   -96.851493            -0.0,+0.0,+0.0
iter: 158  15:15:13 -12.18  -8.98   -96.851493            -0.0,+0.0,+0.0
iter: 159  15:15:18 -12.19  -8.99   -96.851493            -0.0,+0.0,+0.0
iter: 160  15:15:23 -12.74  -9.00   -96.851493            -0.0,+0.0,+0.0
iter: 161  15:15:28 -13.23  -8.98   -96.851493            -0.0,+0.0,+0.0
iter: 162  15:15:33 -13.08  -8.99   -96.851493            -0.0,+0.0,+0.0
iter: 163  15:15:38 -13.56  -9.04   -96.851493            -0.0,+0.0,+0.0

Converged after 163 iterations.

Dipole moment: (-0.000074, -0.000061, 0.010478) |e|*Ang

Total magnetic moment: (-0.000000, 0.000001, 0.000100)
Local magnetic moments:
   0 O  (-0.000021,  0.000032, -0.000121)
   1 O  ( 0.000021,  0.000032, -0.000119)
   2 O  ( 0.000034,  0.000004,  0.000044)
   3 O  (-0.000034,  0.000004,  0.000043)
   4 Cr (-0.000082, -0.000155,  2.208694)
   5 Cr (-0.000081,  0.000156, -2.208858)
   6 Cr ( 0.000081,  0.000156, -2.208861)
   7 Cr ( 0.000081, -0.000155,  2.208694)
   8 O  (-0.000014, -0.000036,  0.000203)
   9 O  ( 0.000014, -0.000036,  0.000203)

Energy contributions relative to reference atoms: (reference = -126274.181857)

Kinetic:        +34.284558
Potential:      -53.918955
External:        +0.000000
XC:             -78.951216
Entropy (-ST):   -0.000000
Local:           +1.734120
--------------------------
Free energy:    -96.851493
Extrapolated:   -96.851493

Showing only first 2 kpts
 Kpt  Band  Eigenvalues  Occupancy
  0    28      2.74932    1.00000
  0    29      2.75122    1.00000
  0    30      2.96458    1.00000
  0    31      2.96682    1.00000

  1    28      2.89601    1.00000
  1    29      2.90105    1.00000
  1    30      2.94017    1.00000
  1    31      2.94192    1.00000


Fermi level: 9.08896

Gap: 0.829 eV
Transition (v -> c):
  (s=0, k=63, n=59, [0.12, 0.12, 0.08]) -> (s=0, k=63, n=60, [0.12, 0.12, 0.08])
Timing:                              incl.     excl.
-----------------------------------------------------------
Hamiltonian:                         0.357     0.004   0.0% |
 Atomic:                             0.114     0.114   0.0% |
  XC Correction:                     0.000     0.000   0.0% |
 Calculate atomic Hamiltonians:      0.026     0.026   0.0% |
 Communicate:                        0.000     0.000   0.0% |
 Initialize Hamiltonian:             0.000     0.000   0.0% |
 Poisson:                            0.001     0.001   0.0% |
 XC 3D grid:                         0.211     0.211   0.0% |
LCAO initialization:                26.063     0.142   0.0% |
 LCAO eigensolver:                  11.667     0.001   0.0% |
  DenseAtomicCorrection:             0.004     0.004   0.0% |
  Distribute overlap matrix:         0.000     0.000   0.0% |
  Orbital Layouts:                   0.010     0.010   0.0% |
  Potential matrix:                 11.622    11.622   1.4% ||
  Sum over cells:                    0.030     0.030   0.0% |
 LCAO to grid:                      13.717    13.717   1.6% ||
 Set positions (LCAO WFS):           0.536     0.113   0.0% |
  Basic WFS set positions:           0.000     0.000   0.0% |
  Basis functions set positions:     0.000     0.000   0.0% |
  P tci:                             0.154     0.154   0.0% |
  ST tci:                            0.182     0.182   0.0% |
  mktci:                             0.088     0.088   0.0% |
PWDescriptor:                        0.007     0.007   0.0% |
SCF-cycle:                         827.327   221.002  25.9% |---------|
 Davidson:                         443.790    32.035   3.7% ||
  Apply H:                          90.117    90.117  10.5% |---|
  Subspace diag:                   102.756     0.051   0.0% |
   calc_h_matrix:                   95.751     4.424   0.5% |
    Apply H:                        91.327    91.327  10.7% |---|
   diagonalize:                      0.896     0.896   0.1% |
   rotate_psi:                       6.058     6.058   0.7% |
  calc. matrices:                  201.545    24.657   2.9% ||
   Apply H:                        176.888   176.888  20.7% |-------|
  diagonalize:                       6.861     6.861   0.8% |
  rotate_psi:                       10.475    10.475   1.2% |
 Density:                          109.100     0.005   0.0% |
  Atomic density matrices:           4.572     4.572   0.5% |
  Mix:                              11.445    11.445   1.3% ||
  Multipole moments:                 0.050     0.050   0.0% |
  Pseudo density:                   93.029    93.021  10.9% |---|
   Symmetrize density:               0.008     0.008   0.0% |
 Hamiltonian:                       53.368     0.489   0.1% |
  Atomic:                           13.126    13.125   1.5% ||
   XC Correction:                    0.001     0.001   0.0% |
  Calculate atomic Hamiltonians:     5.039     5.039   0.6% |
  Communicate:                       0.027     0.027   0.0% |
  Poisson:                           0.159     0.159   0.0% |
  XC 3D grid:                       34.528    34.528   4.0% |-|
 Orthonormalize:                     0.067     0.000   0.0% |
  calc_s_matrix:                     0.015     0.015   0.0% |
  inverse-cholesky:                  0.001     0.001   0.0% |
  projections:                       0.031     0.031   0.0% |
  rotate_psi_s:                      0.020     0.020   0.0% |
Set symmetry:                        0.000     0.000   0.0% |
Other:                               0.752     0.752   0.1% |
-----------------------------------------------------------
Total:                                       854.505 100.0%

Memory usage: 446.21 MiB
Date: Wed Jul  6 15:15:38 2022
